<?xml version="1.0" encoding="UTF-8"?>

<!-- generated on 2025-06-17 15:27:25 by Eclipse SUMO sumo Version 1.23.1
<sumoConfiguration xmlns:xsi="http://www.w3.org/2001/XMLSchema-instance" xsi:noNamespaceSchemaLocation="http://sumo.dlr.de/xsd/sumoConfiguration.xsd">

    <input>
        <net-file value="osm.net.xml.gz"/>
        <route-files value="osm.passenger.trips.xml"/>
        <additional-files value="osm.poly.xml.gz,output.add.xml"/>
    </input>

    <output>
        <tripinfo-output value="tripinfos.xml"/>
        <statistic-output value="stats.xml"/>
    </output>

    <processing>
        <ignore-route-errors value="true"/>
        <tls.actuated.jam-threshold value="30"/>
    </processing>

    <routing>
        <device.rerouting.adaptation-steps value="18"/>
        <device.rerouting.adaptation-interval value="10"/>
    </routing>

    <report>
        <verbose value="true"/>
        <duration-log.statistics value="true"/>
        <no-step-log value="true"/>
    </report>

    <gui_only>
        <gui-settings-file value="osm.view.xml"/>
    </gui_only>

</sumoConfiguration>
-->

<tripinfos xmlns:xsi="http://www.w3.org/2001/XMLSchema-instance" xsi:noNamespaceSchemaLocation="http://sumo.dlr.de/xsd/tripinfo_file.xsd">
    <tripinfo id="veh51" depart="7.00" departLane="1323077495_1" departPos="5.10" departSpeed="0.00" departDelay="0.06" arrival="84.00" arrivalLane="11162377#7_0" arrivalPos="67.18" arrivalSpeed="19.50" duration="77.00" routeLength="846.27" waitingTime="12.00" waitingCount="1" stopTime="0.00" timeLoss="38.20" rerouteNo="1" devices="tripinfo_veh51 routing_veh51" vType="veh_passenger" speedFactor="1.17" vaporized=""/>
    <tripinfo id="veh25" depart="4.00" departLane="-96325602#0_0" departPos="5.10" departSpeed="0.00" departDelay="0.60" arrival="95.00" arrivalLane="-1321803882#2_1" arrivalPos="54.43" arrivalSpeed="11.21" duration="91.00" routeLength="993.31" waitingTime="10.00" waitingCount="1" stopTime="0.00" timeLoss="29.42" rerouteNo="1" devices="tripinfo_veh25 routing_veh25" vType="veh_passenger" speedFactor="0.87" vaporized=""/>
    <tripinfo id="veh296" depart="41.00" departLane="-105108035#4_0" departPos="5.10" departSpeed="0.00" departDelay="0.71" arrival="96.00" arrivalLane="84829897#0_0" arrivalPos="82.28" arrivalSpeed="14.52" duration="55.00" routeLength="628.30" waitingTime="0.00" waitingCount="0" stopTime="0.00" timeLoss="12.89" rerouteNo="1" devices="tripinfo_veh296 routing_veh296" vType="veh_passenger" speedFactor="1.10" vaporized=""/>
    <tripinfo id="veh128" depart="18.00" departLane="-166824283#2_0" departPos="5.10" departSpeed="0.00" departDelay="0.58" arrival="112.00" arrivalLane="83070584_0" arrivalPos="56.45" arrivalSpeed="18.72" duration="94.00" routeLength="1240.00" waitingTime="4.00" waitingCount="1" stopTime="0.00" timeLoss="40.81" rerouteNo="1" devices="tripinfo_veh128 routing_veh128" vType="veh_passenger" speedFactor="1.12" vaporized=""/>
    <tripinfo id="veh55" depart="8.00" departLane="585094972#18_2" departPos="5.10" departSpeed="0.00" departDelay="0.51" arrival="114.00" arrivalLane="-190659929#2_1" arrivalPos="24.19" arrivalSpeed="10.79" duration="106.00" routeLength="1144.37" waitingTime="28.00" waitingCount="2" stopTime="0.00" timeLoss="56.08" rerouteNo="1" devices="tripinfo_veh55 routing_veh55" vType="veh_passenger" speedFactor="1.00" vaporized=""/>
    <tripinfo id="veh154" depart="21.00" departLane="-1379284234_0" departPos="5.10" departSpeed="0.00" departDelay="0.04" arrival="115.00" arrivalLane="-11148856_0" arrivalPos="129.02" arrivalSpeed="13.99" duration="94.00" routeLength="1149.31" waitingTime="0.00" waitingCount="0" stopTime="0.00" timeLoss="20.09" rerouteNo="1" devices="tripinfo_veh154 routing_veh154" vType="veh_passenger" speedFactor="1.06" vaporized=""/>
    <tripinfo id="veh192" depart="27.00" departLane="831991569#0_0" departPos="5.10" departSpeed="0.00" departDelay="0.86" arrival="129.00" arrivalLane="134544910#0_1" arrivalPos="1.16" arrivalSpeed="13.00" duration="102.00" routeLength="1110.45" waitingTime="1.00" waitingCount="1" stopTime="0.00" timeLoss="27.80" rerouteNo="1" devices="tripinfo_veh192 routing_veh192" vType="veh_passenger" speedFactor="1.10" vaporized=""/>
    <tripinfo id="veh19" depart="3.00" departLane="534601256#5_0" departPos="5.10" departSpeed="0.00" departDelay="0.41" arrival="130.00" arrivalLane="1122248901_0" arrivalPos="197.97" arrivalSpeed="15.43" duration="127.00" routeLength="1380.99" waitingTime="0.00" waitingCount="0" stopTime="0.00" timeLoss="19.75" rerouteNo="1" devices="tripinfo_veh19 routing_veh19" vType="veh_passenger" speedFactor="1.16" vaporized=""/>
    <tripinfo id="veh320" depart="44.00" departLane="535330990#0_1" departPos="5.10" departSpeed="0.00" departDelay="0.44" arrival="140.00" arrivalLane="1121983457_0" arrivalPos="16.37" arrivalSpeed="19.78" duration="96.00" routeLength="1209.57" waitingTime="0.00" waitingCount="0" stopTime="0.00" timeLoss="20.94" rerouteNo="1" devices="tripinfo_veh320 routing_veh320" vType="veh_passenger" speedFactor="1.16" vaporized=""/>
    <tripinfo id="veh750" depart="103.00" departLane="-1382959968#1_0" departPos="5.10" departSpeed="0.00" departDelay="0.90" arrival="140.00" arrivalLane="-190545254#1_1" arrivalPos="107.89" arrivalSpeed="19.29" duration="37.00" routeLength="449.68" waitingTime="0.00" waitingCount="0" stopTime="0.00" timeLoss="11.27" rerouteNo="1" devices="tripinfo_veh750 routing_veh750" vType="veh_passenger" speedFactor="1.14" vaporized=""/>
    <tripinfo id="veh31" depart="5.00" departLane="11163858#0_0" departPos="5.10" departSpeed="0.00" departDelay="0.78" arrival="145.00" arrivalLane="1355256774#0_2" arrivalPos="34.29" arrivalSpeed="16.89" duration="140.00" routeLength="1705.52" waitingTime="13.00" waitingCount="1" stopTime="0.00" timeLoss="39.47" rerouteNo="1" devices="tripinfo_veh31 routing_veh31" vType="veh_passenger" speedFactor="1.15" vaporized=""/>
    <tripinfo id="veh234" depart="32.00" departLane="11109764_1" departPos="5.10" departSpeed="0.00" departDelay="0.15" arrival="145.00" arrivalLane="-1320232832_1" arrivalPos="113.75" arrivalSpeed="11.77" duration="113.00" routeLength="719.25" waitingTime="50.00" waitingCount="3" stopTime="0.00" timeLoss="70.15" rerouteNo="1" devices="tripinfo_veh234 routing_veh234" vType="veh_passenger" speedFactor="0.91" vaporized=""/>
    <tripinfo id="veh312" depart="43.00" departLane="901503234#0_1" departPos="5.10" departSpeed="0.00" departDelay="0.53" arrival="145.00" arrivalLane="11158372_0" arrivalPos="3.50" arrivalSpeed="13.89" duration="102.00" routeLength="1237.75" waitingTime="10.00" waitingCount="1" stopTime="0.00" timeLoss="32.53" rerouteNo="1" devices="tripinfo_veh312 routing_veh312" vType="veh_passenger" speedFactor="1.11" vaporized=""/>
    <tripinfo id="veh728" depart="100.00" departLane="1130563533#2_0" departPos="5.10" departSpeed="0.00" departDelay="0.90" arrival="145.00" arrivalLane="445329731#2_1" arrivalPos="39.49" arrivalSpeed="27.04" duration="45.00" routeLength="630.70" waitingTime="0.00" waitingCount="0" stopTime="0.00" timeLoss="18.30" rerouteNo="1" devices="tripinfo_veh728 routing_veh728" vType="veh_passenger" speedFactor="1.01" vaporized=""/>
    <tripinfo id="veh780" depart="107.00" departLane="-585143036#3_0" departPos="5.10" departSpeed="0.00" departDelay="0.82" arrival="145.00" arrivalLane="1380217637#0_1" arrivalPos="9.93" arrivalSpeed="10.89" duration="38.00" routeLength="339.55" waitingTime="0.00" waitingCount="0" stopTime="0.00" timeLoss="9.69" rerouteNo="1" devices="tripinfo_veh780 routing_veh780" vType="veh_passenger" speedFactor="1.07" vaporized=""/>
    <tripinfo id="veh190" depart="26.00" departLane="1056729979#0_0" departPos="5.10" departSpeed="0.00" departDelay="0.14" arrival="148.00" arrivalLane="-518452467#7_1" arrivalPos="55.66" arrivalSpeed="24.60" duration="122.00" routeLength="1281.82" waitingTime="22.00" waitingCount="2" stopTime="0.00" timeLoss="44.96" rerouteNo="1" devices="tripinfo_veh190 routing_veh190" vType="veh_passenger" speedFactor="0.90" vaporized=""/>
    <tripinfo id="veh664" depart="91.00" departLane="11132320#0_0" departPos="5.10" departSpeed="10.70" departDelay="0.61" arrival="159.00" arrivalLane="-405469687#0_0" arrivalPos="15.55" arrivalSpeed="13.80" duration="68.00" routeLength="683.95" waitingTime="3.00" waitingCount="1" stopTime="0.00" timeLoss="17.75" rerouteNo="1" devices="tripinfo_veh664 routing_veh664" vType="veh_passenger" speedFactor="1.05" vaporized=""/>
    <tripinfo id="veh245" depart="34.00" departLane="1059899963#0_0" departPos="5.10" departSpeed="0.00" departDelay="0.65" arrival="161.00" arrivalLane="-1130563526_1" arrivalPos="19.57" arrivalSpeed="14.31" duration="127.00" routeLength="1269.38" waitingTime="23.00" waitingCount="2" stopTime="0.00" timeLoss="67.76" rerouteNo="1" devices="tripinfo_veh245 routing_veh245" vType="veh_passenger" speedFactor="1.01" vaporized=""/>
    <tripinfo id="veh449" depart="62.00" departLane="-11129231#0_0" departPos="5.10" departSpeed="0.00" departDelay="0.88" arrival="164.00" arrivalLane="1191482402_0" arrivalPos="30.36" arrivalSpeed="23.73" duration="102.00" routeLength="1178.97" waitingTime="16.00" waitingCount="2" stopTime="0.00" timeLoss="47.28" rerouteNo="1" devices="tripinfo_veh449 routing_veh449" vType="veh_passenger" speedFactor="1.12" vaporized=""/>
    <tripinfo id="veh673" depart="92.00" departLane="764345550#2_1" departPos="5.10" departSpeed="0.00" departDelay="0.39" arrival="165.00" arrivalLane="-11166933#1_0" arrivalPos="191.49" arrivalSpeed="14.02" duration="73.00" routeLength="862.73" waitingTime="0.00" waitingCount="0" stopTime="0.00" timeLoss="12.20" rerouteNo="1" devices="tripinfo_veh673 routing_veh673" vType="veh_passenger" speedFactor="1.02" vaporized=""/>
    <tripinfo id="veh217" depart="30.00" departLane="11131039#0_0" departPos="5.10" departSpeed="14.87" departDelay="0.46" arrival="167.00" arrivalLane="398253883#0_2" arrivalPos="19.86" arrivalSpeed="10.29" duration="137.00" routeLength="818.08" waitingTime="45.00" waitingCount="4" stopTime="0.00" timeLoss="82.47" rerouteNo="1" devices="tripinfo_veh217 routing_veh217" vType="veh_passenger" speedFactor="1.07" vaporized=""/>
    <tripinfo id="veh127" depart="18.00" departLane="-11139175#16_0" departPos="5.10" departSpeed="0.00" departDelay="0.71" arrival="168.00" arrivalLane="-1322089567_1" arrivalPos="19.32" arrivalSpeed="9.89" duration="150.00" routeLength="1302.55" waitingTime="13.00" waitingCount="2" stopTime="0.00" timeLoss="37.33" rerouteNo="1" devices="tripinfo_veh127 routing_veh127" vType="veh_passenger" speedFactor="0.82" vaporized=""/>
    <tripinfo id="veh70" depart="10.00" departLane="-163069951#4_0" departPos="5.10" departSpeed="0.00" departDelay="0.47" arrival="169.00" arrivalLane="585342231#0_1" arrivalPos="32.88" arrivalSpeed="13.59" duration="159.00" routeLength="1357.18" waitingTime="44.00" waitingCount="4" stopTime="0.00" timeLoss="87.55" rerouteNo="1" devices="tripinfo_veh70 routing_veh70" vType="veh_passenger" speedFactor="1.02" vaporized=""/>
    <tripinfo id="veh530" depart="73.00" departLane="1378011910#0_0" departPos="5.10" departSpeed="0.00" departDelay="0.85" arrival="170.00" arrivalLane="534645507#0_0" arrivalPos="4.36" arrivalSpeed="8.75" duration="97.00" routeLength="1004.27" waitingTime="24.00" waitingCount="1" stopTime="0.00" timeLoss="55.88" rerouteNo="1" devices="tripinfo_veh530 routing_veh530" vType="veh_passenger" speedFactor="1.21" vaporized=""/>
    <tripinfo id="veh330" depart="45.00" departLane="287326461#0_2" departPos="5.10" departSpeed="0.00" departDelay="0.08" arrival="172.00" arrivalLane="-1377165483_0" arrivalPos="30.49" arrivalSpeed="26.07" duration="127.00" routeLength="1822.68" waitingTime="12.00" waitingCount="1" stopTime="0.00" timeLoss="46.19" rerouteNo="1" devices="tripinfo_veh330 routing_veh330" vType="veh_passenger" speedFactor="0.96" vaporized=""/>
    <tripinfo id="veh233" depart="32.00" departLane="1066988376#0_0" departPos="5.10" departSpeed="0.00" departDelay="0.28" arrival="173.00" arrivalLane="11163702#0_0" arrivalPos="67.47" arrivalSpeed="21.80" duration="141.00" routeLength="1079.09" waitingTime="34.00" waitingCount="4" stopTime="0.00" timeLoss="88.83" rerouteNo="1" devices="tripinfo_veh233 routing_veh233" vType="veh_passenger" speedFactor="1.15" vaporized=""/>
    <tripinfo id="veh319" depart="44.00" departLane="534968065#1_1" departPos="5.10" departSpeed="0.00" departDelay="0.58" arrival="174.00" arrivalLane="11147871#1_0" arrivalPos="217.94" arrivalSpeed="15.02" duration="130.00" routeLength="1582.56" waitingTime="9.00" waitingCount="2" stopTime="0.00" timeLoss="35.24" rerouteNo="1" devices="tripinfo_veh319 routing_veh319" vType="veh_passenger" speedFactor="1.13" vaporized=""/>
    <tripinfo id="veh200" depart="28.00" departLane="343709669#1_1" departPos="5.10" departSpeed="0.00" departDelay="0.77" arrival="182.00" arrivalLane="-1130613356_1" arrivalPos="10.11" arrivalSpeed="6.32" duration="154.00" routeLength="1156.25" waitingTime="49.00" waitingCount="4" stopTime="0.00" timeLoss="83.24" rerouteNo="1" devices="tripinfo_veh200 routing_veh200" vType="veh_passenger" speedFactor="0.95" vaporized=""/>
    <tripinfo id="veh663" depart="91.00" departLane="84829886_0" departPos="5.10" departSpeed="0.00" departDelay="0.75" arrival="183.00" arrivalLane="930577696#7_0" arrivalPos="86.77" arrivalSpeed="15.22" duration="92.00" routeLength="789.75" waitingTime="20.00" waitingCount="1" stopTime="0.00" timeLoss="57.41" rerouteNo="1" devices="tripinfo_veh663 routing_veh663" vType="veh_passenger" speedFactor="1.19" vaporized=""/>
    <tripinfo id="veh89" depart="13.00" departLane="1385131766#1_2" departPos="0.20" departSpeed="0.00" departDelay="0.88" arrival="184.00" arrivalLane="132683100#2_0" arrivalPos="85.49" arrivalSpeed="12.67" duration="171.00" routeLength="1751.95" waitingTime="32.00" waitingCount="4" stopTime="0.00" timeLoss="77.21" rerouteNo="1" devices="tripinfo_veh89 routing_veh89" vType="veh_passenger" speedFactor="1.02" vaporized=""/>
    <tripinfo id="veh413" depart="57.00" departLane="1306297217_1" departPos="5.10" departSpeed="0.00" departDelay="0.78" arrival="185.00" arrivalLane="-11169110#1_0" arrivalPos="190.04" arrivalSpeed="10.94" duration="128.00" routeLength="1354.32" waitingTime="0.00" waitingCount="0" stopTime="0.00" timeLoss="19.77" rerouteNo="1" devices="tripinfo_veh413 routing_veh413" vType="veh_passenger" speedFactor="0.80" vaporized=""/>
    <tripinfo id="veh212" depart="29.00" departLane="190532765#0_0" departPos="5.10" departSpeed="0.00" departDelay="0.14" arrival="190.00" arrivalLane="191920968#0_0" arrivalPos="8.45" arrivalSpeed="20.59" duration="161.00" routeLength="1202.38" waitingTime="48.00" waitingCount="6" stopTime="0.00" timeLoss="106.28" rerouteNo="1" devices="tripinfo_veh212 routing_veh212" vType="veh_passenger" speedFactor="1.00" vaporized=""/>
    <tripinfo id="veh270" depart="37.00" departLane="859922136#9_2" departPos="5.10" departSpeed="0.00" departDelay="0.25" arrival="191.00" arrivalLane="11115707#2_0" arrivalPos="111.80" arrivalSpeed="12.55" duration="154.00" routeLength="1613.08" waitingTime="3.00" waitingCount="2" stopTime="0.00" timeLoss="22.44" rerouteNo="1" devices="tripinfo_veh270 routing_veh270" vType="veh_passenger" speedFactor="0.97" vaporized=""/>
    <tripinfo id="veh687" depart="94.00" departLane="47472541#0_0" departPos="5.10" departSpeed="24.68" departDelay="0.48" arrival="191.00" arrivalLane="11165818#2_0" arrivalPos="79.57" arrivalSpeed="24.36" duration="97.00" routeLength="1489.13" waitingTime="3.00" waitingCount="1" stopTime="0.00" timeLoss="16.10" rerouteNo="1" devices="tripinfo_veh687 routing_veh687" vType="veh_passenger" speedFactor="1.11" vaporized=""/>
    <tripinfo id="veh546" depart="75.00" departLane="1381051266#0_1" departPos="5.10" departSpeed="0.00" departDelay="0.67" arrival="192.00" arrivalLane="875379662#0_0" arrivalPos="43.16" arrivalSpeed="11.85" duration="117.00" routeLength="1799.79" waitingTime="1.00" waitingCount="1" stopTime="0.00" timeLoss="34.81" rerouteNo="1" devices="tripinfo_veh546 routing_veh546" vType="veh_passenger" speedFactor="0.98" vaporized=""/>
    <tripinfo id="veh126" depart="18.00" departLane="990435987#0_0" departPos="5.10" departSpeed="0.00" departDelay="0.85" arrival="195.00" arrivalLane="978877542_1" arrivalPos="90.80" arrivalSpeed="10.96" duration="177.00" routeLength="1700.96" waitingTime="16.00" waitingCount="3" stopTime="0.00" timeLoss="49.41" rerouteNo="1" devices="tripinfo_veh126 routing_veh126" vType="veh_passenger" speedFactor="1.03" vaporized=""/>
    <tripinfo id="veh492" depart="67.00" departLane="-972048687#12_0" departPos="5.10" departSpeed="0.00" departDelay="0.03" arrival="195.00" arrivalLane="11132502#5_0" arrivalPos="55.11" arrivalSpeed="15.59" duration="128.00" routeLength="1511.20" waitingTime="0.00" waitingCount="0" stopTime="0.00" timeLoss="30.05" rerouteNo="1" devices="tripinfo_veh492 routing_veh492" vType="veh_passenger" speedFactor="1.16" vaporized=""/>
    <tripinfo id="veh831" depart="114.00" departLane="314459410#4_0" departPos="5.10" departSpeed="0.00" departDelay="0.88" arrival="196.00" arrivalLane="-856193612#3_0" arrivalPos="99.14" arrivalSpeed="14.48" duration="82.00" routeLength="941.48" waitingTime="0.00" waitingCount="0" stopTime="0.00" timeLoss="13.33" rerouteNo="1" devices="tripinfo_veh831 routing_veh831" vType="veh_passenger" speedFactor="1.00" vaporized=""/>
    <tripinfo id="veh487" depart="67.00" departLane="847838226#4_2" departPos="5.10" departSpeed="0.00" departDelay="0.71" arrival="200.00" arrivalLane="11123534#6_0" arrivalPos="36.41" arrivalSpeed="11.25" duration="133.00" routeLength="1600.05" waitingTime="1.00" waitingCount="1" stopTime="0.00" timeLoss="18.81" rerouteNo="1" devices="tripinfo_veh487 routing_veh487" vType="veh_passenger" speedFactor="1.06" vaporized=""/>
    <tripinfo id="veh13" depart="2.00" departLane="-11143972#6_0" departPos="5.10" departSpeed="0.00" departDelay="0.23" arrival="203.00" arrivalLane="-11146912#6_0" arrivalPos="114.39" arrivalSpeed="21.59" duration="201.00" routeLength="2993.43" waitingTime="16.00" waitingCount="2" stopTime="0.00" timeLoss="65.54" rerouteNo="1" devices="tripinfo_veh13 routing_veh13" vType="veh_passenger" speedFactor="1.12" vaporized=""/>
    <tripinfo id="veh865" depart="118.00" departLane="-798513527#5_0" departPos="5.10" departSpeed="0.00" departDelay="0.25" arrival="204.00" arrivalLane="1011739621#2_1" arrivalPos="68.91" arrivalSpeed="20.10" duration="86.00" routeLength="1248.00" waitingTime="2.00" waitingCount="1" stopTime="0.00" timeLoss="23.48" rerouteNo="1" devices="tripinfo_veh865 routing_veh865" vType="veh_passenger" speedFactor="1.17" vaporized=""/>
    <tripinfo id="veh264" depart="36.00" departLane="1377759304_2" departPos="5.10" departSpeed="0.00" departDelay="0.06" arrival="205.00" arrivalLane="190867845#4_0" arrivalPos="153.58" arrivalSpeed="24.45" duration="169.00" routeLength="2285.46" waitingTime="20.00" waitingCount="2" stopTime="0.00" timeLoss="64.68" rerouteNo="1" devices="tripinfo_veh264 routing_veh264" vType="veh_passenger" speedFactor="1.13" vaporized=""/>
    <tripinfo id="veh537" depart="74.00" departLane="-993098815_1" departPos="5.10" departSpeed="0.00" departDelay="0.90" arrival="205.00" arrivalLane="-11168092#3_0" arrivalPos="64.62" arrivalSpeed="11.73" duration="131.00" routeLength="873.14" waitingTime="51.00" waitingCount="1" stopTime="0.00" timeLoss="77.70" rerouteNo="1" devices="tripinfo_veh537 routing_veh537" vType="veh_passenger" speedFactor="0.85" vaporized=""/>
    <tripinfo id="veh457" depart="63.00" departLane="1303283505#0_1" departPos="5.10" departSpeed="0.00" departDelay="0.79" arrival="209.00" arrivalLane="-620253214#1_1" arrivalPos="121.96" arrivalSpeed="9.52" duration="146.00" routeLength="2076.45" waitingTime="20.00" waitingCount="1" stopTime="0.00" timeLoss="48.09" rerouteNo="1" devices="tripinfo_veh457 routing_veh457" vType="veh_passenger" speedFactor="1.11" vaporized=""/>
    <tripinfo id="veh232" depart="32.00" departLane="1378263903#0_0" departPos="5.10" departSpeed="0.00" departDelay="0.42" arrival="212.00" arrivalLane="-11136120#2_0" arrivalPos="109.31" arrivalSpeed="11.87" duration="180.00" routeLength="1787.66" waitingTime="45.00" waitingCount="2" stopTime="0.00" timeLoss="63.85" rerouteNo="1" devices="tripinfo_veh232 routing_veh232" vType="veh_passenger" speedFactor="0.97" vaporized=""/>
    <tripinfo id="veh679" depart="96.00" departLane="1002175077_2" departPos="0.20" departSpeed="0.00" departDelay="3.57" arrival="213.00" arrivalLane="-11119932#2_0" arrivalPos="88.29" arrivalSpeed="12.73" duration="117.00" routeLength="1545.63" waitingTime="0.00" waitingCount="0" stopTime="0.00" timeLoss="12.81" rerouteNo="1" devices="tripinfo_veh679 routing_veh679" vType="veh_passenger" speedFactor="0.99" vaporized=""/>
    <tripinfo id="veh419" depart="58.00" departLane="1380217638#0_0" departPos="5.10" departSpeed="0.00" departDelay="0.96" arrival="214.00" arrivalLane="190693577#0_2" arrivalPos="67.60" arrivalSpeed="15.42" duration="156.00" routeLength="2081.90" waitingTime="28.00" waitingCount="1" stopTime="0.00" timeLoss="57.71" rerouteNo="1" devices="tripinfo_veh419 routing_veh419" vType="veh_passenger" speedFactor="1.03" vaporized=""/>
    <tripinfo id="veh866" depart="118.00" departLane="190867866#0_1" departPos="5.10" departSpeed="0.00" departDelay="0.11" arrival="214.00" arrivalLane="1386967430_1" arrivalPos="3.65" arrivalSpeed="5.31" duration="96.00" routeLength="951.73" waitingTime="27.00" waitingCount="2" stopTime="0.00" timeLoss="49.55" rerouteNo="1" devices="tripinfo_veh866 routing_veh866" vType="veh_passenger" speedFactor="0.98" vaporized=""/>
    <tripinfo id="veh111" depart="16.00" departLane="-11131747#1_0" departPos="5.10" departSpeed="0.00" departDelay="0.89" arrival="215.00" arrivalLane="1125373091#0_0" arrivalPos="42.98" arrivalSpeed="15.36" duration="199.00" routeLength="2072.44" waitingTime="0.00" waitingCount="0" stopTime="0.00" timeLoss="27.15" rerouteNo="1" devices="tripinfo_veh111 routing_veh111" vType="veh_passenger" speedFactor="0.87" vaporized=""/>
    <tripinfo id="veh448" depart="61.00" departLane="1337953161#3_0" departPos="5.10" departSpeed="0.00" departDelay="0.01" arrival="215.00" arrivalLane="190532709#3_0" arrivalPos="188.77" arrivalSpeed="18.72" duration="154.00" routeLength="1825.11" waitingTime="20.00" waitingCount="1" stopTime="0.00" timeLoss="50.03" rerouteNo="1" devices="tripinfo_veh448 routing_veh448" vType="veh_passenger" speedFactor="0.88" vaporized=""/>
    <tripinfo id="veh465" depart="64.00" departLane="445305024#0_2" departPos="5.10" departSpeed="0.00" departDelay="0.70" arrival="215.00" arrivalLane="11144853#3_0" arrivalPos="183.87" arrivalSpeed="22.25" duration="151.00" routeLength="2470.86" waitingTime="0.00" waitingCount="0" stopTime="0.00" timeLoss="33.37" rerouteNo="1" devices="tripinfo_veh465 routing_veh465" vType="veh_passenger" speedFactor="1.06" vaporized=""/>
    <tripinfo id="veh764" depart="104.00" departLane="-11159627#1_0" departPos="5.10" departSpeed="14.67" departDelay="0.00" arrival="221.00" arrivalLane="314459410#6_1" arrivalPos="51.62" arrivalSpeed="13.95" duration="117.00" routeLength="1947.84" waitingTime="0.00" waitingCount="0" stopTime="0.00" timeLoss="15.69" rerouteNo="1" devices="tripinfo_veh764 routing_veh764" vType="veh_passenger" speedFactor="1.06" vaporized=""/>
    <tripinfo id="veh813" depart="111.00" departLane="190693567#10_1" departPos="5.10" departSpeed="0.00" departDelay="0.33" arrival="221.00" arrivalLane="11149901_0" arrivalPos="66.60" arrivalSpeed="11.57" duration="110.00" routeLength="896.19" waitingTime="17.00" waitingCount="1" stopTime="0.00" timeLoss="38.10" rerouteNo="1" devices="tripinfo_veh813 routing_veh813" vType="veh_passenger" speedFactor="0.87" vaporized=""/>
    <tripinfo id="veh12" depart="2.00" departLane="859922092_0" departPos="5.10" departSpeed="0.00" departDelay="0.37" arrival="224.00" arrivalLane="-851565148#0_0" arrivalPos="36.42" arrivalSpeed="10.81" duration="222.00" routeLength="2236.57" waitingTime="11.00" waitingCount="3" stopTime="0.00" timeLoss="54.13" rerouteNo="1" devices="tripinfo_veh12 routing_veh12" vType="veh_passenger" speedFactor="1.05" vaporized=""/>
    <tripinfo id="veh178" depart="25.00" departLane="1384112858_0" departPos="5.10" departSpeed="0.00" departDelay="0.77" arrival="224.00" arrivalLane="-680707626#1_0" arrivalPos="84.26" arrivalSpeed="14.19" duration="199.00" routeLength="3147.72" waitingTime="0.00" waitingCount="0" stopTime="0.00" timeLoss="26.34" rerouteNo="1" devices="tripinfo_veh178 routing_veh178" vType="veh_passenger" speedFactor="1.08" vaporized=""/>
    <tripinfo id="veh549" depart="75.00" departLane="1307926631_0" departPos="5.10" departSpeed="0.00" departDelay="0.27" arrival="224.00" arrivalLane="-1376720501#3_1" arrivalPos="81.31" arrivalSpeed="17.09" duration="149.00" routeLength="1708.83" waitingTime="4.00" waitingCount="1" stopTime="0.00" timeLoss="32.12" rerouteNo="1" devices="tripinfo_veh549 routing_veh549" vType="veh_passenger" speedFactor="0.96" vaporized=""/>
    <tripinfo id="veh493" depart="68.00" departLane="85545654_0" departPos="5.10" departSpeed="24.34" departDelay="0.89" arrival="225.00" arrivalLane="534772448_0" arrivalPos="68.44" arrivalSpeed="16.55" duration="157.00" routeLength="3195.21" waitingTime="13.00" waitingCount="1" stopTime="0.00" timeLoss="36.53" rerouteNo="1" devices="tripinfo_veh493 routing_veh493" vType="veh_passenger" speedFactor="1.13" vaporized=""/>
    <tripinfo id="veh677" depart="93.00" departLane="-11130835#2_0" departPos="5.10" departSpeed="0.00" departDelay="0.84" arrival="225.00" arrivalLane="11151053#0_0" arrivalPos="183.97" arrivalSpeed="13.29" duration="132.00" routeLength="1401.00" waitingTime="13.00" waitingCount="1" stopTime="0.00" timeLoss="34.33" rerouteNo="1" devices="tripinfo_veh677 routing_veh677" vType="veh_passenger" speedFactor="1.02" vaporized=""/>
    <tripinfo id="veh592" depart="81.00" departLane="1053208157#0_0" departPos="5.10" departSpeed="0.00" departDelay="0.41" arrival="228.00" arrivalLane="-628634176#1_0" arrivalPos="90.16" arrivalSpeed="16.91" duration="147.00" routeLength="1902.71" waitingTime="3.00" waitingCount="1" stopTime="0.00" timeLoss="33.85" rerouteNo="1" devices="tripinfo_veh592 routing_veh592" vType="veh_passenger" speedFactor="1.25" vaporized=""/>
    <tripinfo id="veh159" depart="22.00" departLane="419506851#0_3" departPos="5.10" departSpeed="0.00" departDelay="0.36" arrival="230.00" arrivalLane="608520366#0_0" arrivalPos="77.63" arrivalSpeed="18.33" duration="208.00" routeLength="1850.09" waitingTime="67.00" waitingCount="3" stopTime="0.00" timeLoss="110.14" rerouteNo="1" devices="tripinfo_veh159 routing_veh159" vType="veh_passenger" speedFactor="1.14" vaporized=""/>
    <tripinfo id="veh804" depart="110.00" departLane="895329474#1_2" departPos="5.10" departSpeed="0.00" departDelay="0.55" arrival="230.00" arrivalLane="-11159636#5_0" arrivalPos="181.62" arrivalSpeed="13.78" duration="120.00" routeLength="2271.52" waitingTime="0.00" waitingCount="0" stopTime="0.00" timeLoss="18.68" rerouteNo="1" devices="tripinfo_veh804 routing_veh804" vType="veh_passenger" speedFactor="1.00" vaporized=""/>
    <tripinfo id="veh392" depart="54.00" departLane="-190545190#0_1" departPos="5.10" departSpeed="0.00" departDelay="0.64" arrival="232.00" arrivalLane="314459410#1_1" arrivalPos="64.55" arrivalSpeed="12.64" duration="178.00" routeLength="2337.14" waitingTime="20.00" waitingCount="4" stopTime="0.00" timeLoss="73.97" rerouteNo="1" devices="tripinfo_veh392 routing_veh392" vType="veh_passenger" speedFactor="1.00" vaporized=""/>
    <tripinfo id="veh414" depart="57.00" departLane="11135733#0_1" departPos="5.10" departSpeed="0.00" departDelay="0.64" arrival="232.00" arrivalLane="87573093#0_0" arrivalPos="91.25" arrivalSpeed="27.77" duration="175.00" routeLength="1660.02" waitingTime="42.00" waitingCount="4" stopTime="0.00" timeLoss="96.50" rerouteNo="1" devices="tripinfo_veh414 routing_veh414" vType="veh_passenger" speedFactor="1.00" vaporized=""/>
    <tripinfo id="veh77" depart="11.00" departLane="-764345550#4_0" departPos="5.10" departSpeed="0.00" departDelay="0.52" arrival="234.00" arrivalLane="1130563539_1" arrivalPos="15.84" arrivalSpeed="16.80" duration="223.00" routeLength="2713.49" waitingTime="50.00" waitingCount="3" stopTime="0.00" timeLoss="79.97" rerouteNo="1" devices="tripinfo_veh77 routing_veh77" vType="veh_passenger" speedFactor="0.98" vaporized=""/>
    <tripinfo id="veh623" depart="85.00" departLane="11146545#0_0" departPos="5.10" departSpeed="0.00" departDelay="0.19" arrival="234.00" arrivalLane="-1144608291_2" arrivalPos="34.67" arrivalSpeed="13.12" duration="149.00" routeLength="1957.95" waitingTime="19.00" waitingCount="2" stopTime="0.00" timeLoss="62.30" rerouteNo="1" devices="tripinfo_veh623 routing_veh623" vType="veh_passenger" speedFactor="1.13" vaporized=""/>
    <tripinfo id="veh187" depart="26.00" departLane="-534454622#14_0" departPos="5.10" departSpeed="0.00" departDelay="0.54" arrival="235.00" arrivalLane="534422154#4_0" arrivalPos="88.05" arrivalSpeed="11.19" duration="209.00" routeLength="2430.27" waitingTime="35.00" waitingCount="4" stopTime="0.00" timeLoss="83.34" rerouteNo="1" devices="tripinfo_veh187 routing_veh187" vType="veh_passenger" speedFactor="0.89" vaporized=""/>
    <tripinfo id="veh743" depart="102.00" departLane="11167913_0" departPos="5.10" departSpeed="0.00" departDelay="0.86" arrival="235.00" arrivalLane="1176472397_0" arrivalPos="19.49" arrivalSpeed="13.07" duration="133.00" routeLength="1024.74" waitingTime="31.00" waitingCount="3" stopTime="0.00" timeLoss="76.83" rerouteNo="1" devices="tripinfo_veh743 routing_veh743" vType="veh_passenger" speedFactor="1.00" vaporized=""/>